+ 0.5 0 2 tcp 40 ------- 0 0.0 3.0 0 0
- 0.5 0 2 tcp 40 ------- 0 0.0 3.0 0 0
r 0.51064 0 2 tcp 40 ------- 0 0.0 3.0 0 0
+ 0.51064 2 3 tcp 40 ------- 0 0.0 3.0 0 0
- 0.51064 2 3 tcp 40 ------- 0 0.0 3.0 0 0
r 0.520996 2 3 tcp 40 ------- 0 0.0 3.0 0 0
+ 0.520996 3 2 ack 40 ------- 0 3.0 0.0 0 1
- 0.520996 3 2 ack 40 ------- 0 3.0 0.0 0 1
r 0.531351 3 2 ack 40 ------- 0 3.0 0.0 0 1
+ 0.531351 2 0 ack 40 ------- 0 3.0 0.0 0 1
- 0.531351 2 0 ack 40 ------- 0 3.0 0.0 0 1
r 0.541991 2 0 ack 40 ------- 0 3.0 0.0 0 1
+ 0.541991 0 2 tcp 1040 ------- 0 0.0 3.0 1 2
- 0.541991 0 2 tcp 1040 ------- 0 0.0 3.0 1 2
+ 0.541991 0 2 tcp 1040 ------- 0 0.0 3.0 2 3
- 0.558631 0 2 tcp 1040 ------- 0 0.0 3.0 2 3
r 0.568631 0 2 tcp 1040 ------- 0 0.0 3.0 1 2
+ 0.568631 2 3 tcp 1040 ------- 0 0.0 3.0 1 2
- 0.568631 2 3 tcp 1040 ------- 0 0.0 3.0 1 2
r 0.585271 0 2 tcp 1040 ------- 0 0.0 3.0 2 3
+ 0.585271 2 3 tcp 1040 ------- 0 0.0 3.0 2 3
- 0.585271 2 3 tcp 1040 ------- 0 0.0 3.0 2 3
r 0.587876 2 3 tcp 1040 ------- 0 0.0 3.0 1 2
+ 0.587876 3 2 ack 40 ------- 0 3.0 0.0 1 4
- 0.587876 3 2 ack 40 ------- 0 3.0 0.0 1 4
r 0.598231 3 2 ack 40 ------- 0 3.0 0.0 1 4
+ 0.598231 2 0 ack 40 ------- 0 3.0 0.0 1 4
- 0.598231 2 0 ack 40 ------- 0 3.0 0.0 1 4
r 0.604516 2 3 tcp 1040 ------- 0 0.0 3.0 2 3
+ 0.604516 3 2 ack 40 ------- 0 3.0 0.0 2 5
- 0.604516 3 2 ack 40 ------- 0 3.0 0.0 2 5
r 0.608871 2 0 ack 40 ------- 0 3.0 0.0 1 4
+ 0.608871 0 2 tcp 1040 ------- 0 0.0 3.0 3 6
- 0.608871 0 2 tcp 1040 ------- 0 0.0 3.0 3 6
+ 0.608871 0 2 tcp 1040 ------- 0 0.0 3.0 4 7
r 0.614871 3 2 ack 40 ------- 0 3.0 0.0 2 5
+ 0.614871 2 0 ack 40 ------- 0 3.0 0.0 2 5
- 0.614871 2 0 ack 40 ------- 0 3.0 0.0 2 5
- 0.625511 0 2 tcp 1040 ------- 0 0.0 3.0 4 7
r 0.625511 2 0 ack 40 ------- 0 3.0 0.0 2 5
+ 0.625511 0 2 tcp 1040 ------- 0 0.0 3.0 5 8
+ 0.625511 0 2 tcp 1040 ------- 0 0.0 3.0 6 9
r 0.635511 0 2 tcp 1040 ------- 0 0.0 3.0 3 6
+ 0.635511 2 3 tcp 1040 ------- 0 0.0 3.0 3 6
- 0.635511 2 3 tcp 1040 ------- 0 0.0 3.0 3 6
- 0.642151 0 2 tcp 1040 ------- 0 0.0 3.0 5 8
r 0.652151 0 2 tcp 1040 ------- 0 0.0 3.0 4 7
+ 0.652151 2 3 tcp 1040 ------- 0 0.0 3.0 4 7
- 0.652151 2 3 tcp 1040 ------- 0 0.0 3.0 4 7
r 0.654756 2 3 tcp 1040 ------- 0 0.0 3.0 3 6
+ 0.654756 3 2 ack 40 ------- 0 3.0 0.0 3 10
- 0.654756 3 2 ack 40 ------- 0 3.0 0.0 3 10
- 0.658791 0 2 tcp 1040 ------- 0 0.0 3.0 6 9
r 0.665111 3 2 ack 40 ------- 0 3.0 0.0 3 10
+ 0.665111 2 0 ack 40 ------- 0 3.0 0.0 3 10
- 0.665111 2 0 ack 40 ------- 0 3.0 0.0 3 10
r 0.668791 0 2 tcp 1040 ------- 0 0.0 3.0 5 8
+ 0.668791 2 3 tcp 1040 ------- 0 0.0 3.0 5 8
- 0.668791 2 3 tcp 1040 ------- 0 0.0 3.0 5 8
r 0.671396 2 3 tcp 1040 ------- 0 0.0 3.0 4 7
+ 0.671396 3 2 ack 40 ------- 0 3.0 0.0 4 11
- 0.671396 3 2 ack 40 ------- 0 3.0 0.0 4 11
r 0.675751 2 0 ack 40 ------- 0 3.0 0.0 3 10
+ 0.675751 0 2 tcp 1040 ------- 0 0.0 3.0 7 12
- 0.675751 0 2 tcp 1040 ------- 0 0.0 3.0 7 12
+ 0.675751 0 2 tcp 1040 ------- 0 0.0 3.0 8 13
r 0.681751 3 2 ack 40 ------- 0 3.0 0.0 4 11
+ 0.681751 2 0 ack 40 ------- 0 3.0 0.0 4 11
- 0.681751 2 0 ack 40 ------- 0 3.0 0.0 4 11
r 0.685431 0 2 tcp 1040 ------- 0 0.0 3.0 6 9
+ 0.685431 2 3 tcp 1040 ------- 0 0.0 3.0 6 9
- 0.685431 2 3 tcp 1040 ------- 0 0.0 3.0 6 9
r 0.688036 2 3 tcp 1040 ------- 0 0.0 3.0 5 8
+ 0.688036 3 2 ack 40 ------- 0 3.0 0.0 5 14
- 0.688036 3 2 ack 40 ------- 0 3.0 0.0 5 14
- 0.692391 0 2 tcp 1040 ------- 0 0.0 3.0 8 13
r 0.692391 2 0 ack 40 ------- 0 3.0 0.0 4 11
+ 0.692391 0 2 tcp 1040 ------- 0 0.0 3.0 9 15
+ 0.692391 0 2 tcp 1040 ------- 0 0.0 3.0 10 16
r 0.698391 3 2 ack 40 ------- 0 3.0 0.0 5 14
+ 0.698391 2 0 ack 40 ------- 0 3.0 0.0 5 14
- 0.698391 2 0 ack 40 ------- 0 3.0 0.0 5 14
r 0.702391 0 2 tcp 1040 ------- 0 0.0 3.0 7 12
+ 0.702391 2 3 tcp 1040 ------- 0 0.0 3.0 7 12
- 0.702391 2 3 tcp 1040 ------- 0 0.0 3.0 7 12
r 0.704676 2 3 tcp 1040 ------- 0 0.0 3.0 6 9
+ 0.704676 3 2 ack 40 ------- 0 3.0 0.0 6 17
- 0.704676 3 2 ack 40 ------- 0 3.0 0.0 6 17
- 0.709031 0 2 tcp 1040 ------- 0 0.0 3.0 9 15
r 0.709031 2 0 ack 40 ------- 0 3.0 0.0 5 14
+ 0.709031 0 2 tcp 1040 ------- 0 0.0 3.0 11 18
+ 0.709031 0 2 tcp 1040 ------- 0 0.0 3.0 12 19
r 0.715031 3 2 ack 40 ------- 0 3.0 0.0 6 17
+ 0.715031 2 0 ack 40 ------- 0 3.0 0.0 6 17
- 0.715031 2 0 ack 40 ------- 0 3.0 0.0 6 17
r 0.719031 0 2 tcp 1040 ------- 0 0.0 3.0 8 13
+ 0.719031 2 3 tcp 1040 ------- 0 0.0 3.0 8 13
- 0.719031 2 3 tcp 1040 ------- 0 0.0 3.0 8 13
r 0.721636 2 3 tcp 1040 ------- 0 0.0 3.0 7 12
+ 0.721636 3 2 ack 40 ------- 0 3.0 0.0 7 20
- 0.721636 3 2 ack 40 ------- 0 3.0 0.0 7 20
- 0.725671 0 2 tcp 1040 ------- 0 0.0 3.0 10 16
r 0.725671 2 0 ack 40 ------- 0 3.0 0.0 6 17
+ 0.725671 0 2 tcp 1040 ------- 0 0.0 3.0 13 21
+ 0.725671 0 2 tcp 1040 ------- 0 0.0 3.0 14 22
r 0.731991 3 2 ack 40 ------- 0 3.0 0.0 7 20
+ 0.731991 2 0 ack 40 ------- 0 3.0 0.0 7 20
- 0.731991 2 0 ack 40 ------- 0 3.0 0.0 7 20
r 0.735671 0 2 tcp 1040 ------- 0 0.0 3.0 9 15
+ 0.735671 2 3 tcp 1040 ------- 0 0.0 3.0 9 15
- 0.735671 2 3 tcp 1040 ------- 0 0.0 3.0 9 15
r 0.738276 2 3 tcp 1040 ------- 0 0.0 3.0 8 13
+ 0.738276 3 2 ack 40 ------- 0 3.0 0.0 8 23
- 0.738276 3 2 ack 40 ------- 0 3.0 0.0 8 23
- 0.742311 0 2 tcp 1040 ------- 0 0.0 3.0 11 18
r 0.742631 2 0 ack 40 ------- 0 3.0 0.0 7 20
+ 0.742631 0 2 tcp 1040 ------- 0 0.0 3.0 15 24
+ 0.742631 0 2 tcp 1040 ------- 0 0.0 3.0 16 25
r 0.748631 3 2 ack 40 ------- 0 3.0 0.0 8 23
+ 0.748631 2 0 ack 40 ------- 0 3.0 0.0 8 23
- 0.748631 2 0 ack 40 ------- 0 3.0 0.0 8 23
r 0.752311 0 2 tcp 1040 ------- 0 0.0 3.0 10 16
+ 0.752311 2 3 tcp 1040 ------- 0 0.0 3.0 10 16
- 0.752311 2 3 tcp 1040 ------- 0 0.0 3.0 10 16
r 0.754916 2 3 tcp 1040 ------- 0 0.0 3.0 9 15
+ 0.754916 3 2 ack 40 ------- 0 3.0 0.0 9 26
- 0.754916 3 2 ack 40 ------- 0 3.0 0.0 9 26
- 0.758951 0 2 tcp 1040 ------- 0 0.0 3.0 12 19
r 0.759271 2 0 ack 40 ------- 0 3.0 0.0 8 23
+ 0.759271 0 2 tcp 1040 ------- 0 0.0 3.0 17 27
+ 0.759271 0 2 tcp 1040 ------- 0 0.0 3.0 18 28
r 0.765271 3 2 ack 40 ------- 0 3.0 0.0 9 26
+ 0.765271 2 0 ack 40 ------- 0 3.0 0.0 9 26
- 0.765271 2 0 ack 40 ------- 0 3.0 0.0 9 26
r 0.768951 0 2 tcp 1040 ------- 0 0.0 3.0 11 18
+ 0.768951 2 3 tcp 1040 ------- 0 0.0 3.0 11 18
- 0.768951 2 3 tcp 1040 ------- 0 0.0 3.0 11 18
r 0.771556 2 3 tcp 1040 ------- 0 0.0 3.0 10 16
+ 0.771556 3 2 ack 40 ------- 0 3.0 0.0 10 29
- 0.771556 3 2 ack 40 ------- 0 3.0 0.0 10 29
- 0.775591 0 2 tcp 1040 ------- 0 0.0 3.0 13 21
r 0.775911 2 0 ack 40 ------- 0 3.0 0.0 9 26
+ 0.775911 0 2 tcp 1040 ------- 0 0.0 3.0 19 30
+ 0.775911 0 2 tcp 1040 ------- 0 0.0 3.0 20 31
r 0.781911 3 2 ack 40 ------- 0 3.0 0.0 10 29
+ 0.781911 2 0 ack 40 ------- 0 3.0 0.0 10 29
- 0.781911 2 0 ack 40 ------- 0 3.0 0.0 10 29
r 0.785591 0 2 tcp 1040 ------- 0 0.0 3.0 12 19
+ 0.785591 2 3 tcp 1040 ------- 0 0.0 3.0 12 19
- 0.785591 2 3 tcp 1040 ------- 0 0.0 3.0 12 19
r 0.788196 2 3 tcp 1040 ------- 0 0.0 3.0 11 18
+ 0.788196 3 2 ack 40 ------- 0 3.0 0.0 11 32
- 0.788196 3 2 ack 40 ------- 0 3.0 0.0 11 32
- 0.792231 0 2 tcp 1040 ------- 0 0.0 3.0 14 22
r 0.792551 2 0 ack 40 ------- 0 3.0 0.0 10 29
+ 0.792551 0 2 tcp 1040 ------- 0 0.0 3.0 21 33
+ 0.792551 0 2 tcp 1040 ------- 0 0.0 3.0 22 34
r 0.798551 3 2 ack 40 ------- 0 3.0 0.0 11 32
+ 0.798551 2 0 ack 40 ------- 0 3.0 0.0 11 32
- 0.798551 2 0 ack 40 ------- 0 3.0 0.0 11 32
r 0.802231 0 2 tcp 1040 ------- 0 0.0 3.0 13 21
+ 0.802231 2 3 tcp 1040 ------- 0 0.0 3.0 13 21
- 0.802231 2 3 tcp 1040 ------- 0 0.0 3.0 13 21
r 0.804836 2 3 tcp 1040 ------- 0 0.0 3.0 12 19
+ 0.804836 3 2 ack 40 ------- 0 3.0 0.0 12 35
- 0.804836 3 2 ack 40 ------- 0 3.0 0.0 12 35
- 0.808871 0 2 tcp 1040 ------- 0 0.0 3.0 15 24
r 0.809191 2 0 ack 40 ------- 0 3.0 0.0 11 32
+ 0.809191 0 2 tcp 1040 ------- 0 0.0 3.0 23 36
+ 0.809191 0 2 tcp 1040 ------- 0 0.0 3.0 24 37
r 0.815191 3 2 ack 40 ------- 0 3.0 0.0 12 35
+ 0.815191 2 0 ack 40 ------- 0 3.0 0.0 12 35
- 0.815191 2 0 ack 40 ------- 0 3.0 0.0 12 35
r 0.818871 0 2 tcp 1040 ------- 0 0.0 3.0 14 22
+ 0.818871 2 3 tcp 1040 ------- 0 0.0 3.0 14 22
- 0.818871 2 3 tcp 1040 ------- 0 0.0 3.0 14 22
r 0.821476 2 3 tcp 1040 ------- 0 0.0 3.0 13 21
+ 0.821476 3 2 ack 40 ------- 0 3.0 0.0 13 38
- 0.821476 3 2 ack 40 ------- 0 3.0 0.0 13 38
- 0.825511 0 2 tcp 1040 ------- 0 0.0 3.0 16 25
r 0.825831 2 0 ack 40 ------- 0 3.0 0.0 12 35
+ 0.825831 0 2 tcp 1040 ------- 0 0.0 3.0 25 39
+ 0.825831 0 2 tcp 1040 ------- 0 0.0 3.0 26 40
d 0.825831 0 2 tcp 1040 ------- 0 0.0 3.0 26 40
r 0.831831 3 2 ack 40 ------- 0 3.0 0.0 13 38
+ 0.831831 2 0 ack 40 ------- 0 3.0 0.0 13 38
- 0.831831 2 0 ack 40 ------- 0 3.0 0.0 13 38
r 0.835511 0 2 tcp 1040 ------- 0 0.0 3.0 15 24
+ 0.835511 2 3 tcp 1040 ------- 0 0.0 3.0 15 24
- 0.835511 2 3 tcp 1040 ------- 0 0.0 3.0 15 24
r 0.838116 2 3 tcp 1040 ------- 0 0.0 3.0 14 22
+ 0.838116 3 2 ack 40 ------- 0 3.0 0.0 14 41
- 0.838116 3 2 ack 40 ------- 0 3.0 0.0 14 41
- 0.842151 0 2 tcp 1040 ------- 0 0.0 3.0 17 27
r 0.842471 2 0 ack 40 ------- 0 3.0 0.0 13 38
+ 0.842471 0 2 tcp 1040 ------- 0 0.0 3.0 27 42
+ 0.842471 0 2 tcp 1040 ------- 0 0.0 3.0 28 43
d 0.842471 0 2 tcp 1040 ------- 0 0.0 3.0 28 43
r 0.848471 3 2 ack 40 ------- 0 3.0 0.0 14 41
+ 0.848471 2 0 ack 40 ------- 0 3.0 0.0 14 41
- 0.848471 2 0 ack 40 ------- 0 3.0 0.0 14 41
r 0.852151 0 2 tcp 1040 ------- 0 0.0 3.0 16 25
+ 0.852151 2 3 tcp 1040 ------- 0 0.0 3.0 16 25
- 0.852151 2 3 tcp 1040 ------- 0 0.0 3.0 16 25
r 0.854756 2 3 tcp 1040 ------- 0 0.0 3.0 15 24
+ 0.854756 3 2 ack 40 ------- 0 3.0 0.0 15 44
- 0.854756 3 2 ack 40 ------- 0 3.0 0.0 15 44
- 0.858791 0 2 tcp 1040 ------- 0 0.0 3.0 18 28
r 0.859111 2 0 ack 40 ------- 0 3.0 0.0 14 41
+ 0.859111 0 2 tcp 1040 ------- 0 0.0 3.0 29 45
+ 0.859111 0 2 tcp 1040 ------- 0 0.0 3.0 30 46
d 0.859111 0 2 tcp 1040 ------- 0 0.0 3.0 30 46
r 0.865111 3 2 ack 40 ------- 0 3.0 0.0 15 44
+ 0.865111 2 0 ack 40 ------- 0 3.0 0.0 15 44
- 0.865111 2 0 ack 40 ------- 0 3.0 0.0 15 44
r 0.868791 0 2 tcp 1040 ------- 0 0.0 3.0 17 27
+ 0.868791 2 3 tcp 1040 ------- 0 0.0 3.0 17 27
- 0.868791 2 3 tcp 1040 ------- 0 0.0 3.0 17 27
r 0.871396 2 3 tcp 1040 ------- 0 0.0 3.0 16 25
+ 0.871396 3 2 ack 40 ------- 0 3.0 0.0 16 47
- 0.871396 3 2 ack 40 ------- 0 3.0 0.0 16 47
- 0.875431 0 2 tcp 1040 ------- 0 0.0 3.0 19 30
r 0.875751 2 0 ack 40 ------- 0 3.0 0.0 15 44
+ 0.875751 0 2 tcp 1040 ------- 0 0.0 3.0 31 48
+ 0.875751 0 2 tcp 1040 ------- 0 0.0 3.0 32 49
d 0.875751 0 2 tcp 1040 ------- 0 0.0 3.0 32 49
r 0.881751 3 2 ack 40 ------- 0 3.0 0.0 16 47
+ 0.881751 2 0 ack 40 ------- 0 3.0 0.0 16 47
- 0.881751 2 0 ack 40 ------- 0 3.0 0.0 16 47
r 0.885431 0 2 tcp 1040 ------- 0 0.0 3.0 18 28
+ 0.885431 2 3 tcp 1040 ------- 0 0.0 3.0 18 28
- 0.885431 2 3 tcp 1040 ------- 0 0.0 3.0 18 28
r 0.888036 2 3 tcp 1040 ------- 0 0.0 3.0 17 27
+ 0.888036 3 2 ack 40 ------- 0 3.0 0.0 17 50
- 0.888036 3 2 ack 40 ------- 0 3.0 0.0 17 50
- 0.892071 0 2 tcp 1040 ------- 0 0.0 3.0 20 31
r 0.892391 2 0 ack 40 ------- 0 3.0 0.0 16 47
+ 0.892391 0 2 tcp 1040 ------- 0 0.0 3.0 33 51
+ 0.892391 0 2 tcp 1040 ------- 0 0.0 3.0 34 52
d 0.892391 0 2 tcp 1040 ------- 0 0.0 3.0 34 52
r 0.898391 3 2 ack 40 ------- 0 3.0 0.0 17 50
+ 0.898391 2 0 ack 40 ------- 0 3.0 0.0 17 50
- 0.898391 2 0 ack 40 ------- 0 3.0 0.0 17 50
r 0.902071 0 2 tcp 1040 ------- 0 0.0 3.0 19 30
+ 0.902071 2 3 tcp 1040 ------- 0 0.0 3.0 19 30
- 0.902071 2 3 tcp 1040 ------- 0 0.0 3.0 19 30
r 0.904676 2 3 tcp 1040 ------- 0 0.0 3.0 18 28
+ 0.904676 3 2 ack 40 ------- 0 3.0 0.0 18 53
- 0.904676 3 2 ack 40 ------- 0 3.0 0.0 18 53
- 0.908711 0 2 tcp 1040 ------- 0 0.0 3.0 21 33
r 0.909031 2 0 ack 40 ------- 0 3.0 0.0 17 50
+ 0.909031 0 2 tcp 1040 ------- 0 0.0 3.0 35 54
+ 0.909031 0 2 tcp 1040 ------- 0 0.0 3.0 36 55
d 0.909031 0 2 tcp 1040 ------- 0 0.0 3.0 36 55
r 0.915031 3 2 ack 40 ------- 0 3.0 0.0 18 53
+ 0.915031 2 0 ack 40 ------- 0 3.0 0.0 18 53
- 0.915031 2 0 ack 40 ------- 0 3.0 0.0 18 53
r 0.918711 0 2 tcp 1040 ------- 0 0.0 3.0 20 31
+ 0.918711 2 3 tcp 1040 ------- 0 0.0 3.0 20 31
- 0.918711 2 3 tcp 1040 ------- 0 0.0 3.0 20 31
r 0.921316 2 3 tcp 1040 ------- 0 0.0 3.0 19 30
+ 0.921316 3 2 ack 40 ------- 0 3.0 0.0 19 56
- 0.921316 3 2 ack 40 ------- 0 3.0 0.0 19 56
- 0.925351 0 2 tcp 1040 ------- 0 0.0 3.0 22 34
r 0.925671 2 0 ack 40 ------- 0 3.0 0.0 18 53
+ 0.925671 0 2 tcp 1040 ------- 0 0.0 3.0 37 57
+ 0.925671 0 2 tcp 1040 ------- 0 0.0 3.0 38 58
d 0.925671 0 2 tcp 1040 ------- 0 0.0 3.0 38 58
r 0.931671 3 2 ack 40 ------- 0 3.0 0.0 19 56
+ 0.931671 2 0 ack 40 ------- 0 3.0 0.0 19 56
- 0.931671 2 0 ack 40 ------- 0 3.0 0.0 19 56
r 0.935351 0 2 tcp 1040 ------- 0 0.0 3.0 21 33
+ 0.935351 2 3 tcp 1040 ------- 0 0.0 3.0 21 33
- 0.935351 2 3 tcp 1040 ------- 0 0.0 3.0 21 33
r 0.937956 2 3 tcp 1040 ------- 0 0.0 3.0 20 31
+ 0.937956 3 2 ack 40 ------- 0 3.0 0.0 20 59
- 0.937956 3 2 ack 40 ------- 0 3.0 0.0 20 59
- 0.941991 0 2 tcp 1040 ------- 0 0.0 3.0 23 36
r 0.942311 2 0 ack 40 ------- 0 3.0 0.0 19 56
+ 0.942311 0 2 tcp 1040 ------- 0 0.0 3.0 39 60
r 0.948311 3 2 ack 40 ------- 0 3.0 0.0 20 59
+ 0.948311 2 0 ack 40 ------- 0 3.0 0.0 20 59
- 0.948311 2 0 ack 40 ------- 0 3.0 0.0 20 59
r 0.951991 0 2 tcp 1040 ------- 0 0.0 3.0 22 34
+ 0.951991 2 3 tcp 1040 ------- 0 0.0 3.0 22 34
- 0.951991 2 3 tcp 1040 ------- 0 0.0 3.0 22 34
r 0.954596 2 3 tcp 1040 ------- 0 0.0 3.0 21 33
+ 0.954596 3 2 ack 40 ------- 0 3.0 0.0 21 61
- 0.954596 3 2 ack 40 ------- 0 3.0 0.0 21 61
- 0.958631 0 2 tcp 1040 ------- 0 0.0 3.0 24 37
r 0.958951 2 0 ack 40 ------- 0 3.0 0.0 20 59
+ 0.958951 0 2 tcp 1040 ------- 0 0.0 3.0 40 62
r 0.964951 3 2 ack 40 ------- 0 3.0 0.0 21 61
+ 0.964951 2 0 ack 40 ------- 0 3.0 0.0 21 61
- 0.964951 2 0 ack 40 ------- 0 3.0 0.0 21 61
r 0.968631 0 2 tcp 1040 ------- 0 0.0 3.0 23 36
+ 0.968631 2 3 tcp 1040 ------- 0 0.0 3.0 23 36
- 0.968631 2 3 tcp 1040 ------- 0 0.0 3.0 23 36
r 0.971236 2 3 tcp 1040 ------- 0 0.0 3.0 22 34
+ 0.971236 3 2 ack 40 ------- 0 3.0 0.0 22 63
- 0.971236 3 2 ack 40 ------- 0 3.0 0.0 22 63
- 0.975271 0 2 tcp 1040 ------- 0 0.0 3.0 25 39
r 0.975591 2 0 ack 40 ------- 0 3.0 0.0 21 61
+ 0.975591 0 2 tcp 1040 ------- 0 0.0 3.0 41 64
r 0.981591 3 2 ack 40 ------- 0 3.0 0.0 22 63
+ 0.981591 2 0 ack 40 ------- 0 3.0 0.0 22 63
- 0.981591 2 0 ack 40 ------- 0 3.0 0.0 22 63
r 0.985271 0 2 tcp 1040 ------- 0 0.0 3.0 24 37
+ 0.985271 2 3 tcp 1040 ------- 0 0.0 3.0 24 37
- 0.985271 2 3 tcp 1040 ------- 0 0.0 3.0 24 37
r 0.987876 2 3 tcp 1040 ------- 0 0.0 3.0 23 36
+ 0.987876 3 2 ack 40 ------- 0 3.0 0.0 23 65
- 0.987876 3 2 ack 40 ------- 0 3.0 0.0 23 65
- 0.991911 0 2 tcp 1040 ------- 0 0.0 3.0 27 42
r 0.992231 2 0 ack 40 ------- 0 3.0 0.0 22 63
+ 0.992231 0 2 tcp 1040 ------- 0 0.0 3.0 42 66
r 0.998231 3 2 ack 40 ------- 0 3.0 0.0 23 65
+ 0.998231 2 0 ack 40 ------- 0 3.0 0.0 23 65
- 0.998231 2 0 ack 40 ------- 0 3.0 0.0 23 65
+ 1 1 2 cbr 500 ------- 0 1.0 3.1 0 67
- 1 1 2 cbr 500 ------- 0 1.0 3.1 0 67
r 1.001911 0 2 tcp 1040 ------- 0 0.0 3.0 25 39
+ 1.001911 2 3 tcp 1040 ------- 0 0.0 3.0 25 39
- 1.001911 2 3 tcp 1040 ------- 0 0.0 3.0 25 39
r 1.004516 2 3 tcp 1040 ------- 0 0.0 3.0 24 37
+ 1.004516 3 2 ack 40 ------- 0 3.0 0.0 24 68
- 1.004516 3 2 ack 40 ------- 0 3.0 0.0 24 68
+ 1.005 1 2 cbr 500 ------- 0 1.0 3.1 1 69
- 1.005 1 2 cbr 500 ------- 0 1.0 3.1 1 69
- 1.008551 0 2 tcp 1040 ------- 0 0.0 3.0 29 45
r 1.008871 2 0 ack 40 ------- 0 3.0 0.0 23 65
+ 1.008871 0 2 tcp 1040 ------- 0 0.0 3.0 43 70
+ 1.01 1 2 cbr 500 ------- 0 1.0 3.1 2 71
- 1.01 1 2 cbr 500 ------- 0 1.0 3.1 2 71
r 1.012 1 2 cbr 500 ------- 0 1.0 3.1 0 67
+ 1.012 2 3 cbr 500 ------- 0 1.0 3.1 0 67
- 1.012 2 3 cbr 500 ------- 0 1.0 3.1 0 67
r 1.014871 3 2 ack 40 ------- 0 3.0 0.0 24 68
+ 1.014871 2 0 ack 40 ------- 0 3.0 0.0 24 68
- 1.014871 2 0 ack 40 ------- 0 3.0 0.0 24 68
+ 1.015 1 2 cbr 500 ------- 0 1.0 3.1 3 72
- 1.015 1 2 cbr 500 ------- 0 1.0 3.1 3 72
r 1.017 1 2 cbr 500 ------- 0 1.0 3.1 1 69
+ 1.017 2 3 cbr 500 ------- 0 1.0 3.1 1 69
- 1.017 2 3 cbr 500 ------- 0 1.0 3.1 1 69
r 1.018551 0 2 tcp 1040 ------- 0 0.0 3.0 27 42
+ 1.018551 2 3 tcp 1040 ------- 0 0.0 3.0 27 42
+ 1.02 1 2 cbr 500 ------- 0 1.0 3.1 4 73
- 1.02 1 2 cbr 500 ------- 0 1.0 3.1 4 73
r 1.021156 2 3 tcp 1040 ------- 0 0.0 3.0 25 39
+ 1.021156 3 2 ack 40 ------- 0 3.0 0.0 25 74
- 1.021156 3 2 ack 40 ------- 0 3.0 0.0 25 74
- 1.021444 2 3 tcp 1040 ------- 0 0.0 3.0 27 42
r 1.022 1 2 cbr 500 ------- 0 1.0 3.1 2 71
+ 1.022 2 3 cbr 500 ------- 0 1.0 3.1 2 71
+ 1.025 1 2 cbr 500 ------- 0 1.0 3.1 5 75
- 1.025 1 2 cbr 500 ------- 0 1.0 3.1 5 75
- 1.025191 0 2 tcp 1040 ------- 0 0.0 3.0 31 48
r 1.025511 2 0 ack 40 ------- 0 3.0 0.0 24 68
+ 1.025511 0 2 tcp 1040 ------- 0 0.0 3.0 44 76
r 1.026444 2 3 cbr 500 ------- 0 1.0 3.1 0 67
r 1.027 1 2 cbr 500 ------- 0 1.0 3.1 3 72
+ 1.027 2 3 cbr 500 ------- 0 1.0 3.1 3 72
+ 1.03 1 2 cbr 500 ------- 0 1.0 3.1 6 77
- 1.03 1 2 cbr 500 ------- 0 1.0 3.1 6 77
- 1.030689 2 3 cbr 500 ------- 0 1.0 3.1 2 71
r 1.031444 2 3 cbr 500 ------- 0 1.0 3.1 1 69
r 1.031511 3 2 ack 40 ------- 0 3.0 0.0 25 74
+ 1.031511 2 0 ack 40 ------- 0 3.0 0.0 25 74
- 1.031511 2 0 ack 40 ------- 0 3.0 0.0 25 74
r 1.032 1 2 cbr 500 ------- 0 1.0 3.1 4 73
+ 1.032 2 3 cbr 500 ------- 0 1.0 3.1 4 73
+ 1.035 1 2 cbr 500 ------- 0 1.0 3.1 7 78
- 1.035 1 2 cbr 500 ------- 0 1.0 3.1 7 78
- 1.035133 2 3 cbr 500 ------- 0 1.0 3.1 3 72
r 1.035191 0 2 tcp 1040 ------- 0 0.0 3.0 29 45
+ 1.035191 2 3 tcp 1040 ------- 0 0.0 3.0 29 45
r 1.037 1 2 cbr 500 ------- 0 1.0 3.1 5 75
+ 1.037 2 3 cbr 500 ------- 0 1.0 3.1 5 75
- 1.039578 2 3 cbr 500 ------- 0 1.0 3.1 4 73
+ 1.04 1 2 cbr 500 ------- 0 1.0 3.1 8 79
- 1.04 1 2 cbr 500 ------- 0 1.0 3.1 8 79
r 1.040689 2 3 tcp 1040 ------- 0 0.0 3.0 27 42
+ 1.040689 3 2 ack 40 ------- 0 3.0 0.0 25 80
- 1.040689 3 2 ack 40 ------- 0 3.0 0.0 25 80
- 1.041831 0 2 tcp 1040 ------- 0 0.0 3.0 33 51
r 1.042 1 2 cbr 500 ------- 0 1.0 3.1 6 77
+ 1.042 2 3 cbr 500 ------- 0 1.0 3.1 6 77
r 1.042151 2 0 ack 40 ------- 0 3.0 0.0 25 74
+ 1.042151 0 2 tcp 1040 ------- 0 0.0 3.0 45 81
- 1.044022 2 3 tcp 1040 ------- 0 0.0 3.0 29 45
+ 1.045 1 2 cbr 500 ------- 0 1.0 3.1 9 82
- 1.045 1 2 cbr 500 ------- 0 1.0 3.1 9 82
r 1.045133 2 3 cbr 500 ------- 0 1.0 3.1 2 71
r 1.047 1 2 cbr 500 ------- 0 1.0 3.1 7 78
+ 1.047 2 3 cbr 500 ------- 0 1.0 3.1 7 78
r 1.049578 2 3 cbr 500 ------- 0 1.0 3.1 3 72
+ 1.05 1 2 cbr 500 ------- 0 1.0 3.1 10 83
- 1.05 1 2 cbr 500 ------- 0 1.0 3.1 10 83
r 1.051044 3 2 ack 40 ------- 0 3.0 0.0 25 80
+ 1.051044 2 0 ack 40 ------- 0 3.0 0.0 25 80
- 1.051044 2 0 ack 40 ------- 0 3.0 0.0 25 80
r 1.051831 0 2 tcp 1040 ------- 0 0.0 3.0 31 48
+ 1.051831 2 3 tcp 1040 ------- 0 0.0 3.0 31 48
r 1.052 1 2 cbr 500 ------- 0 1.0 3.1 8 79
+ 1.052 2 3 cbr 500 ------- 0 1.0 3.1 8 79
- 1.053267 2 3 cbr 500 ------- 0 1.0 3.1 5 75
r 1.054022 2 3 cbr 500 ------- 0 1.0 3.1 4 73
+ 1.055 1 2 cbr 500 ------- 0 1.0 3.1 11 84
- 1.055 1 2 cbr 500 ------- 0 1.0 3.1 11 84
r 1.057 1 2 cbr 500 ------- 0 1.0 3.1 9 82
+ 1.057 2 3 cbr 500 ------- 0 1.0 3.1 9 82
- 1.057711 2 3 cbr 500 ------- 0 1.0 3.1 6 77
- 1.058471 0 2 tcp 1040 ------- 0 0.0 3.0 35 54
+ 1.06 1 2 cbr 500 ------- 0 1.0 3.1 12 85
- 1.06 1 2 cbr 500 ------- 0 1.0 3.1 12 85
r 1.061684 2 0 ack 40 ------- 0 3.0 0.0 25 80
r 1.062 1 2 cbr 500 ------- 0 1.0 3.1 10 83
+ 1.062 2 3 cbr 500 ------- 0 1.0 3.1 10 83
- 1.062156 2 3 cbr 500 ------- 0 1.0 3.1 7 78
r 1.063267 2 3 tcp 1040 ------- 0 0.0 3.0 29 45
+ 1.063267 3 2 ack 40 ------- 0 3.0 0.0 25 86
- 1.063267 3 2 ack 40 ------- 0 3.0 0.0 25 86
+ 1.065 1 2 cbr 500 ------- 0 1.0 3.1 13 87
- 1.065 1 2 cbr 500 ------- 0 1.0 3.1 13 87
- 1.0666 2 3 tcp 1040 ------- 0 0.0 3.0 31 48
r 1.067 1 2 cbr 500 ------- 0 1.0 3.1 11 84
+ 1.067 2 3 cbr 500 ------- 0 1.0 3.1 11 84
r 1.067711 2 3 cbr 500 ------- 0 1.0 3.1 5 75
r 1.068471 0 2 tcp 1040 ------- 0 0.0 3.0 33 51
+ 1.068471 2 3 tcp 1040 ------- 0 0.0 3.0 33 51
+ 1.07 1 2 cbr 500 ------- 0 1.0 3.1 14 88
- 1.07 1 2 cbr 500 ------- 0 1.0 3.1 14 88
r 1.072 1 2 cbr 500 ------- 0 1.0 3.1 12 85
+ 1.072 2 3 cbr 500 ------- 0 1.0 3.1 12 85
r 1.072156 2 3 cbr 500 ------- 0 1.0 3.1 6 77
r 1.073622 3 2 ack 40 ------- 0 3.0 0.0 25 86
+ 1.073622 2 0 ack 40 ------- 0 3.0 0.0 25 86
- 1.073622 2 0 ack 40 ------- 0 3.0 0.0 25 86
+ 1.075 1 2 cbr 500 ------- 0 1.0 3.1 15 89
- 1.075 1 2 cbr 500 ------- 0 1.0 3.1 15 89
- 1.075111 0 2 tcp 1040 ------- 0 0.0 3.0 37 57
- 1.075844 2 3 cbr 500 ------- 0 1.0 3.1 8 79
r 1.0766 2 3 cbr 500 ------- 0 1.0 3.1 7 78
r 1.077 1 2 cbr 500 ------- 0 1.0 3.1 13 87
+ 1.077 2 3 cbr 500 ------- 0 1.0 3.1 13 87
+ 1.08 1 2 cbr 500 ------- 0 1.0 3.1 16 90
- 1.08 1 2 cbr 500 ------- 0 1.0 3.1 16 90
- 1.080289 2 3 cbr 500 ------- 0 1.0 3.1 9 82
r 1.082 1 2 cbr 500 ------- 0 1.0 3.1 14 88
+ 1.082 2 3 cbr 500 ------- 0 1.0 3.1 14 88
r 1.084262 2 0 ack 40 ------- 0 3.0 0.0 25 86
- 1.084733 2 3 cbr 500 ------- 0 1.0 3.1 10 83
+ 1.085 1 2 cbr 500 ------- 0 1.0 3.1 17 91
- 1.085 1 2 cbr 500 ------- 0 1.0 3.1 17 91
r 1.085111 0 2 tcp 1040 ------- 0 0.0 3.0 35 54
+ 1.085111 2 3 tcp 1040 ------- 0 0.0 3.0 35 54
r 1.085844 2 3 tcp 1040 ------- 0 0.0 3.0 31 48
+ 1.085844 3 2 ack 40 ------- 0 3.0 0.0 25 92
- 1.085844 3 2 ack 40 ------- 0 3.0 0.0 25 92
r 1.087 1 2 cbr 500 ------- 0 1.0 3.1 15 89
+ 1.087 2 3 cbr 500 ------- 0 1.0 3.1 15 89
- 1.089178 2 3 cbr 500 ------- 0 1.0 3.1 11 84
+ 1.09 1 2 cbr 500 ------- 0 1.0 3.1 18 93
- 1.09 1 2 cbr 500 ------- 0 1.0 3.1 18 93
r 1.090289 2 3 cbr 500 ------- 0 1.0 3.1 8 79
- 1.091751 0 2 tcp 1040 ------- 0 0.0 3.0 39 60
r 1.092 1 2 cbr 500 ------- 0 1.0 3.1 16 90
+ 1.092 2 3 cbr 500 ------- 0 1.0 3.1 16 90
- 1.093622 2 3 tcp 1040 ------- 0 0.0 3.0 33 51
r 1.094733 2 3 cbr 500 ------- 0 1.0 3.1 9 82
+ 1.095 1 2 cbr 500 ------- 0 1.0 3.1 19 94
- 1.095 1 2 cbr 500 ------- 0 1.0 3.1 19 94
r 1.0962 3 2 ack 40 ------- 0 3.0 0.0 25 92
+ 1.0962 2 0 ack 40 ------- 0 3.0 0.0 25 92
- 1.0962 2 0 ack 40 ------- 0 3.0 0.0 25 92
r 1.097 1 2 cbr 500 ------- 0 1.0 3.1 17 91
+ 1.097 2 3 cbr 500 ------- 0 1.0 3.1 17 91
r 1.099178 2 3 cbr 500 ------- 0 1.0 3.1 10 83
+ 1.1 1 2 cbr 500 ------- 0 1.0 3.1 20 95
- 1.1 1 2 cbr 500 ------- 0 1.0 3.1 20 95
r 1.101751 0 2 tcp 1040 ------- 0 0.0 3.0 37 57
+ 1.101751 2 3 tcp 1040 ------- 0 0.0 3.0 37 57
r 1.102 1 2 cbr 500 ------- 0 1.0 3.1 18 93
+ 1.102 2 3 cbr 500 ------- 0 1.0 3.1 18 93
- 1.102867 2 3 cbr 500 ------- 0 1.0 3.1 12 85
r 1.103622 2 3 cbr 500 ------- 0 1.0 3.1 11 84
+ 1.105 1 2 cbr 500 ------- 0 1.0 3.1 21 96
- 1.105 1 2 cbr 500 ------- 0 1.0 3.1 21 96
r 1.10684 2 0 ack 40 ------- 0 3.0 0.0 25 92
+ 1.10684 0 2 tcp 1040 ---A--- 0 0.0 3.0 26 97
r 1.107 1 2 cbr 500 ------- 0 1.0 3.1 19 94
+ 1.107 2 3 cbr 500 ------- 0 1.0 3.1 19 94
- 1.107311 2 3 cbr 500 ------- 0 1.0 3.1 13 87
- 1.108391 0 2 tcp 1040 ------- 0 0.0 3.0 40 62
+ 1.11 1 2 cbr 500 ------- 0 1.0 3.1 22 98
- 1.11 1 2 cbr 500 ------- 0 1.0 3.1 22 98
- 1.111756 2 3 cbr 500 ------- 0 1.0 3.1 14 88
r 1.112 1 2 cbr 500 ------- 0 1.0 3.1 20 95
+ 1.112 2 3 cbr 500 ------- 0 1.0 3.1 20 95
r 1.112867 2 3 tcp 1040 ------- 0 0.0 3.0 33 51
+ 1.112867 3 2 ack 40 ------- 0 3.0 0.0 25 99
- 1.112867 3 2 ack 40 ------- 0 3.0 0.0 25 99
+ 1.115 1 2 cbr 500 ------- 0 1.0 3.1 23 100
- 1.115 1 2 cbr 500 ------- 0 1.0 3.1 23 100
- 1.1162 2 3 tcp 1040 ------- 0 0.0 3.0 35 54
r 1.117 1 2 cbr 500 ------- 0 1.0 3.1 21 96
+ 1.117 2 3 cbr 500 ------- 0 1.0 3.1 21 96
r 1.117311 2 3 cbr 500 ------- 0 1.0 3.1 12 85
r 1.118391 0 2 tcp 1040 ------- 0 0.0 3.0 39 60
+ 1.118391 2 3 tcp 1040 ------- 0 0.0 3.0 39 60
+ 1.12 1 2 cbr 500 ------- 0 1.0 3.1 24 101
- 1.12 1 2 cbr 500 ------- 0 1.0 3.1 24 101
r 1.121756 2 3 cbr 500 ------- 0 1.0 3.1 13 87
r 1.122 1 2 cbr 500 ------- 0 1.0 3.1 22 98
+ 1.122 2 3 cbr 500 ------- 0 1.0 3.1 22 98
r 1.123222 3 2 ack 40 ------- 0 3.0 0.0 25 99
+ 1.123222 2 0 ack 40 ------- 0 3.0 0.0 25 99
- 1.123222 2 0 ack 40 ------- 0 3.0 0.0 25 99
+ 1.125 1 2 cbr 500 ------- 0 1.0 3.1 25 102
- 1.125 1 2 cbr 500 ------- 0 1.0 3.1 25 102
- 1.125031 0 2 tcp 1040 ------- 0 0.0 3.0 41 64
- 1.125444 2 3 cbr 500 ------- 0 1.0 3.1 15 89
r 1.1262 2 3 cbr 500 ------- 0 1.0 3.1 14 88
r 1.127 1 2 cbr 500 ------- 0 1.0 3.1 23 100
+ 1.127 2 3 cbr 500 ------- 0 1.0 3.1 23 100
- 1.129889 2 3 cbr 500 ------- 0 1.0 3.1 16 90
+ 1.13 1 2 cbr 500 ------- 0 1.0 3.1 26 103
- 1.13 1 2 cbr 500 ------- 0 1.0 3.1 26 103
r 1.132 1 2 cbr 500 ------- 0 1.0 3.1 24 101
+ 1.132 2 3 cbr 500 ------- 0 1.0 3.1 24 101
r 1.133862 2 0 ack 40 ------- 0 3.0 0.0 25 99
- 1.134333 2 3 cbr 500 ------- 0 1.0 3.1 17 91
+ 1.135 1 2 cbr 500 ------- 0 1.0 3.1 27 104
- 1.135 1 2 cbr 500 ------- 0 1.0 3.1 27 104
r 1.135031 0 2 tcp 1040 ------- 0 0.0 3.0 40 62
+ 1.135031 2 3 tcp 1040 ------- 0 0.0 3.0 40 62
r 1.135444 2 3 tcp 1040 ------- 0 0.0 3.0 35 54
+ 1.135444 3 2 ack 40 ------- 0 3.0 0.0 25 105
- 1.135444 3 2 ack 40 ------- 0 3.0 0.0 25 105
r 1.137 1 2 cbr 500 ------- 0 1.0 3.1 25 102
+ 1.137 2 3 cbr 500 ------- 0 1.0 3.1 25 102
- 1.138778 2 3 tcp 1040 ------- 0 0.0 3.0 37 57
r 1.139889 2 3 cbr 500 ------- 0 1.0 3.1 15 89
+ 1.14 1 2 cbr 500 ------- 0 1.0 3.1 28 106
- 1.14 1 2 cbr 500 ------- 0 1.0 3.1 28 106
- 1.141671 0 2 tcp 1040 ------- 0 0.0 3.0 42 66
r 1.142 1 2 cbr 500 ------- 0 1.0 3.1 26 103
+ 1.142 2 3 cbr 500 ------- 0 1.0 3.1 26 103
r 1.144333 2 3 cbr 500 ------- 0 1.0 3.1 16 90
+ 1.145 1 2 cbr 500 ------- 0 1.0 3.1 29 107
- 1.145 1 2 cbr 500 ------- 0 1.0 3.1 29 107
r 1.1458 3 2 ack 40 ------- 0 3.0 0.0 25 105
+ 1.1458 2 0 ack 40 ------- 0 3.0 0.0 25 105
- 1.1458 2 0 ack 40 ------- 0 3.0 0.0 25 105
r 1.147 1 2 cbr 500 ------- 0 1.0 3.1 27 104
+ 1.147 2 3 cbr 500 ------- 0 1.0 3.1 27 104
- 1.148022 2 3 cbr 500 ------- 0 1.0 3.1 18 93
r 1.148778 2 3 cbr 500 ------- 0 1.0 3.1 17 91
+ 1.15 1 2 cbr 500 ------- 0 1.0 3.1 30 108
- 1.15 1 2 cbr 500 ------- 0 1.0 3.1 30 108
r 1.151671 0 2 tcp 1040 ------- 0 0.0 3.0 41 64
+ 1.151671 2 3 tcp 1040 ------- 0 0.0 3.0 41 64
r 1.152 1 2 cbr 500 ------- 0 1.0 3.1 28 106
+ 1.152 2 3 cbr 500 ------- 0 1.0 3.1 28 106
- 1.152467 2 3 cbr 500 ------- 0 1.0 3.1 19 94
+ 1.155 1 2 cbr 500 ------- 0 1.0 3.1 31 109
- 1.155 1 2 cbr 500 ------- 0 1.0 3.1 31 109
r 1.15644 2 0 ack 40 ------- 0 3.0 0.0 25 105
- 1.156911 2 3 cbr 500 ------- 0 1.0 3.1 20 95
r 1.157 1 2 cbr 500 ------- 0 1.0 3.1 29 107
+ 1.157 2 3 cbr 500 ------- 0 1.0 3.1 29 107
r 1.158022 2 3 tcp 1040 ------- 0 0.0 3.0 37 57
+ 1.158022 3 2 ack 40 ------- 0 3.0 0.0 25 110
- 1.158022 3 2 ack 40 ------- 0 3.0 0.0 25 110
- 1.158311 0 2 tcp 1040 ------- 0 0.0 3.0 43 70
+ 1.16 1 2 cbr 500 ------- 0 1.0 3.1 32 111
- 1.16 1 2 cbr 500 ------- 0 1.0 3.1 32 111
- 1.161356 2 3 cbr 500 ------- 0 1.0 3.1 21 96
r 1.162 1 2 cbr 500 ------- 0 1.0 3.1 30 108
+ 1.162 2 3 cbr 500 ------- 0 1.0 3.1 30 108
r 1.162467 2 3 cbr 500 ------- 0 1.0 3.1 18 93
+ 1.165 1 2 cbr 500 ------- 0 1.0 3.1 33 112
- 1.165 1 2 cbr 500 ------- 0 1.0 3.1 33 112
- 1.1658 2 3 tcp 1040 ------- 0 0.0 3.0 39 60
r 1.166911 2 3 cbr 500 ------- 0 1.0 3.1 19 94
r 1.167 1 2 cbr 500 ------- 0 1.0 3.1 31 109
+ 1.167 2 3 cbr 500 ------- 0 1.0 3.1 31 109
r 1.168311 0 2 tcp 1040 ------- 0 0.0 3.0 42 66
+ 1.168311 2 3 tcp 1040 ------- 0 0.0 3.0 42 66
r 1.168378 3 2 ack 40 ------- 0 3.0 0.0 25 110
+ 1.168378 2 0 ack 40 ------- 0 3.0 0.0 25 110
- 1.168378 2 0 ack 40 ------- 0 3.0 0.0 25 110
+ 1.17 1 2 cbr 500 ------- 0 1.0 3.1 34 113
- 1.17 1 2 cbr 500 ------- 0 1.0 3.1 34 113
r 1.171356 2 3 cbr 500 ------- 0 1.0 3.1 20 95
r 1.172 1 2 cbr 500 ------- 0 1.0 3.1 32 111
+ 1.172 2 3 cbr 500 ------- 0 1.0 3.1 32 111
- 1.174951 0 2 tcp 1040 ------- 0 0.0 3.0 44 76
+ 1.175 1 2 cbr 500 ------- 0 1.0 3.1 35 114
- 1.175 1 2 cbr 500 ------- 0 1.0 3.1 35 114
- 1.175044 2 3 cbr 500 ------- 0 1.0 3.1 22 98
r 1.1758 2 3 cbr 500 ------- 0 1.0 3.1 21 96
r 1.177 1 2 cbr 500 ------- 0 1.0 3.1 33 112
+ 1.177 2 3 cbr 500 ------- 0 1.0 3.1 33 112
r 1.179018 2 0 ack 40 ------- 0 3.0 0.0 25 110
- 1.179489 2 3 cbr 500 ------- 0 1.0 3.1 23 100
+ 1.18 1 2 cbr 500 ------- 0 1.0 3.1 36 115
- 1.18 1 2 cbr 500 ------- 0 1.0 3.1 36 115
r 1.182 1 2 cbr 500 ------- 0 1.0 3.1 34 113
+ 1.182 2 3 cbr 500 ------- 0 1.0 3.1 34 113
- 1.183933 2 3 cbr 500 ------- 0 1.0 3.1 24 101
r 1.184951 0 2 tcp 1040 ------- 0 0.0 3.0 43 70
+ 1.184951 2 3 tcp 1040 ------- 0 0.0 3.0 43 70
+ 1.185 1 2 cbr 500 ------- 0 1.0 3.1 37 116
- 1.185 1 2 cbr 500 ------- 0 1.0 3.1 37 116
r 1.185044 2 3 tcp 1040 ------- 0 0.0 3.0 39 60
+ 1.185044 3 2 ack 40 ------- 0 3.0 0.0 25 117
- 1.185044 3 2 ack 40 ------- 0 3.0 0.0 25 117
r 1.187 1 2 cbr 500 ------- 0 1.0 3.1 35 114
+ 1.187 2 3 cbr 500 ------- 0 1.0 3.1 35 114
- 1.188378 2 3 tcp 1040 ------- 0 0.0 3.0 40 62
r 1.189489 2 3 cbr 500 ------- 0 1.0 3.1 22 98
+ 1.19 1 2 cbr 500 ------- 0 1.0 3.1 38 118
- 1.19 1 2 cbr 500 ------- 0 1.0 3.1 38 118
- 1.191591 0 2 tcp 1040 ------- 0 0.0 3.0 45 81
r 1.192 1 2 cbr 500 ------- 0 1.0 3.1 36 115
+ 1.192 2 3 cbr 500 ------- 0 1.0 3.1 36 115
r 1.193933 2 3 cbr 500 ------- 0 1.0 3.1 23 100
+ 1.195 1 2 cbr 500 ------- 0 1.0 3.1 39 119
- 1.195 1 2 cbr 500 ------- 0 1.0 3.1 39 119
r 1.1954 3 2 ack 40 ------- 0 3.0 0.0 25 117
+ 1.1954 2 0 ack 40 ------- 0 3.0 0.0 25 117
- 1.1954 2 0 ack 40 ------- 0 3.0 0.0 25 117
r 1.197 1 2 cbr 500 ------- 0 1.0 3.1 37 116
+ 1.197 2 3 cbr 500 ------- 0 1.0 3.1 37 116
- 1.197622 2 3 cbr 500 ------- 0 1.0 3.1 25 102
r 1.198378 2 3 cbr 500 ------- 0 1.0 3.1 24 101
+ 1.2 1 2 cbr 500 ------- 0 1.0 3.1 40 120
- 1.2 1 2 cbr 500 ------- 0 1.0 3.1 40 120
r 1.201591 0 2 tcp 1040 ------- 0 0.0 3.0 44 76
+ 1.201591 2 3 tcp 1040 ------- 0 0.0 3.0 44 76
r 1.202 1 2 cbr 500 ------- 0 1.0 3.1 38 118
+ 1.202 2 3 cbr 500 ------- 0 1.0 3.1 38 118
- 1.202067 2 3 cbr 500 ------- 0 1.0 3.1 26 103
+ 1.205 1 2 cbr 500 ------- 0 1.0 3.1 41 121
- 1.205 1 2 cbr 500 ------- 0 1.0 3.1 41 121
r 1.20604 2 0 ack 40 ------- 0 3.0 0.0 25 117
- 1.206511 2 3 cbr 500 ------- 0 1.0 3.1 27 104
r 1.207 1 2 cbr 500 ------- 0 1.0 3.1 39 119
+ 1.207 2 3 cbr 500 ------- 0 1.0 3.1 39 119
r 1.207622 2 3 tcp 1040 ------- 0 0.0 3.0 40 62
+ 1.207622 3 2 ack 40 ------- 0 3.0 0.0 25 122